MODEL 1
REMARK VINA RESULT:    -6.916      0.000      0.000
REMARK INTER + INTRA:         -12.790
REMARK INTER:                 -11.162
REMARK INTRA:                  -1.628
REMARK UNBOUND:                -1.628
REMARK  Name = 
REMARK  14 active torsions:
REMARK  status: ('A' for Active; 'I' for Inactive)
REMARK    1  A    between atoms: C_1  and  C_2
REMARK    2  A    between atoms: C_3  and  O_29
REMARK    3  A    between atoms: C_4  and  C_15
REMARK    4  A    between atoms: C_6  and  N_7
REMARK    5  A    between atoms: C_15  and  O_16
REMARK    6  A    between atoms: O_16  and  P_17
REMARK    7  A    between atoms: P_17  and  O_19
REMARK    8  A    between atoms: P_17  and  O_20
REMARK    9  A    between atoms: O_20  and  P_21
REMARK   10  A    between atoms: P_21  and  O_23
REMARK   11  A    between atoms: P_21  and  O_24
REMARK   12  A    between atoms: O_24  and  P_25
REMARK   13  A    between atoms: P_25  and  O_27
REMARK   14  A    between atoms: P_25  and  O_28
REMARK                            x       y       z     vdW  Elec       q    Type
REMARK                         _______ _______ _______ _____ _____    ______ ____
ROOT
ATOM      1  C   UNL     1     -21.281  72.784  15.624  0.00  0.00    +0.000 C 
ATOM      2  C   UNL     1     -20.365  72.849  16.842  0.00  0.00    +0.000 C 
ATOM      3  C   UNL     1     -21.155  73.066  18.137  0.00  0.00    +0.000 C 
ATOM      4  C   UNL     1     -21.314  71.664  18.738  0.00  0.00    +0.000 C 
ATOM      5  O   UNL     1     -20.577  70.752  17.904  0.00  0.00    +0.000 OA
ATOM      6  C   UNL     1     -19.637  71.527  17.135  0.00  0.00    +0.000 C 
ATOM      7  F   UNL     1     -19.496  73.878  16.679  0.00  0.00    +0.000 F 
ENDROOT
BRANCH   6   8
ATOM      8  N   UNL     1     -19.149  70.767  15.981  0.00  0.00    +0.000 N 
ATOM      9  C   UNL     1     -19.881  69.724  15.439  0.00  0.00    +0.000 A 
ATOM     10  C   UNL     1     -19.406  68.958  14.455  0.00  0.00    +0.000 A 
ATOM     11  C   UNL     1     -18.066  69.238  13.923  0.00  0.00    +0.000 A 
ATOM     12  O   UNL     1     -17.568  68.522  13.055  0.00  0.00    +0.000 OA
ATOM     13  N   UNL     1     -17.435  70.318  14.454  0.00  0.00    +0.000 N 
ATOM     14  C   UNL     1     -17.872  71.068  15.515  0.00  0.00    +0.000 A 
ATOM     15  O   UNL     1     -17.147  71.930  16.002  0.00  0.00    +0.000 OA
ATOM     16  H   UNL     1     -16.498  70.511  14.124  0.00  0.00    +0.000 HD
ENDBRANCH   6   8
BRANCH   3  17
ATOM     17  O   UNL     1     -20.469  73.890  19.089  0.00  0.00    +0.000 OA
ATOM     18  H   UNL     1     -20.500  73.460  19.965  0.00  0.00    +0.000 HD
ENDBRANCH   3  17
BRANCH   4  19
ATOM     19  C   UNL     1     -22.781  71.254  18.823  0.00  0.00    +0.000 C 
BRANCH  19  20
ATOM     20  O   UNL     1     -23.213  71.129  20.176  0.00  0.00    +0.000 OA
BRANCH  20  21
ATOM     21  P   UNL     1     -22.464  69.958  20.986  0.00  0.00    +0.000 P 
ATOM     22  O   UNL     1     -21.247  70.403  21.719  0.00  0.00    +0.000 OA
BRANCH  21  23
ATOM     23  O   UNL     1     -22.114  68.863  19.871  0.00  0.00    +0.000 OA
ATOM     24  H   UNL     1     -22.921  68.640  19.367  0.00  0.00    +0.000 HD
ENDBRANCH  21  23
BRANCH  21  25
ATOM     25  O   UNL     1     -23.623  69.260  21.828  0.00  0.00    +0.000 OA
BRANCH  25  26
ATOM     26  P   UNL     1     -23.413  69.311  23.545  0.00  0.00    +0.000 P 
ATOM     27  O   UNL     1     -24.441  68.182  23.699  0.00  0.00    +0.000 OA
BRANCH  26  28
ATOM     28  O   UNL     1     -22.022  68.456  23.406  0.00  0.00    +0.000 OA
ATOM     29  H   UNL     1     -21.616  68.458  24.300  0.00  0.00    +0.000 HD
ENDBRANCH  26  28
BRANCH  26  30
ATOM     30  O   UNL     1     -23.203  69.363  25.262  0.00  0.00    +0.000 OA
BRANCH  30  31
ATOM     31  P   UNL     1     -22.360  70.810  25.696  0.00  0.00    +0.000 P 
ATOM     32  O   UNL     1     -20.992  70.135  25.686  0.00  0.00    +0.000 OA
BRANCH  31  33
ATOM     33  O   UNL     1     -22.571  71.401  24.197  0.00  0.00    +0.000 OA
ATOM     34  H   UNL     1     -23.357  71.977  24.162  0.00  0.00    +0.000 HD
ENDBRANCH  31  33
BRANCH  31  35
ATOM     35  O   UNL     1     -21.517  72.257  26.130  0.00  0.00    +0.000 OA
ATOM     36  H   UNL     1     -22.131  72.730  26.727  0.00  0.00    +0.000 HD
ENDBRANCH  31  35
ENDBRANCH  30  31
ENDBRANCH  26  30
ENDBRANCH  25  26
ENDBRANCH  21  25
ENDBRANCH  20  21
ENDBRANCH  19  20
ENDBRANCH   4  19
TORSDOF 13
ENDMDL
MODEL 2
REMARK VINA RESULT:    -6.755     10.577     13.505
REMARK INTER + INTRA:         -12.530
REMARK INTER:                 -11.022
REMARK INTRA:                  -1.508
REMARK UNBOUND:                -1.628
REMARK  Name = 
REMARK  14 active torsions:
REMARK  status: ('A' for Active; 'I' for Inactive)
REMARK    1  A    between atoms: C_1  and  C_2
REMARK    2  A    between atoms: C_3  and  O_29
REMARK    3  A    between atoms: C_4  and  C_15
REMARK    4  A    between atoms: C_6  and  N_7
REMARK    5  A    between atoms: C_15  and  O_16
REMARK    6  A    between atoms: O_16  and  P_17
REMARK    7  A    between atoms: P_17  and  O_19
REMARK    8  A    between atoms: P_17  and  O_20
REMARK    9  A    between atoms: O_20  and  P_21
REMARK   10  A    between atoms: P_21  and  O_23
REMARK   11  A    between atoms: P_21  and  O_24
REMARK   12  A    between atoms: O_24  and  P_25
REMARK   13  A    between atoms: P_25  and  O_27
REMARK   14  A    between atoms: P_25  and  O_28
REMARK                            x       y       z     vdW  Elec       q    Type
REMARK                         _______ _______ _______ _____ _____    ______ ____
ROOT
ATOM      1  C   UNL     1     -21.210  67.833  33.547  0.00  0.00    +0.000 C 
ATOM      2  C   UNL     1     -20.342  67.670  32.302  0.00  0.00    +0.000 C 
ATOM      3  C   UNL     1     -21.185  67.620  31.023  0.00  0.00    +0.000 C 
ATOM      4  C   UNL     1     -21.140  69.048  30.469  0.00  0.00    +0.000 C 
ATOM      5  O   UNL     1     -20.254  69.810  31.310  0.00  0.00    +0.000 OA
ATOM      6  C   UNL     1     -19.428  68.875  32.030  0.00  0.00    +0.000 C 
ATOM      7  F   UNL     1     -19.636  66.516  32.411  0.00  0.00    +0.000 F 
ENDROOT
BRANCH   6   8
ATOM      8  N   UNL     1     -18.803  69.513  33.192  0.00  0.00    +0.000 N 
ATOM      9  C   UNL     1     -19.344  70.650  33.770  0.00  0.00    +0.000 A 
ATOM     10  C   UNL     1     -18.733  71.300  34.763  0.00  0.00    +0.000 A 
ATOM     11  C   UNL     1     -17.453  70.786  35.265  0.00  0.00    +0.000 A 
ATOM     12  O   UNL     1     -16.829  71.387  36.141  0.00  0.00    +0.000 OA
ATOM     13  N   UNL     1     -17.018  69.631  34.698  0.00  0.00    +0.000 N 
ATOM     14  C   UNL     1     -17.589  68.991  33.629  0.00  0.00    +0.000 A 
ATOM     15  O   UNL     1     -17.025  68.034  33.109  0.00  0.00    +0.000 OA
ATOM     16  H   UNL     1     -16.122  69.275  35.007  0.00  0.00    +0.000 HD
ENDBRANCH   6   8
BRANCH   3  17
ATOM     17  O   UNL     1     -20.653  66.733  30.029  0.00  0.00    +0.000 OA
ATOM     18  H   UNL     1     -20.874  65.814  30.270  0.00  0.00    +0.000 HD
ENDBRANCH   3  17
BRANCH   4  19
ATOM     19  C   UNL     1     -22.529  69.679  30.436  0.00  0.00    +0.000 C 
BRANCH  19  20
ATOM     20  O   UNL     1     -23.038  69.759  29.107  0.00  0.00    +0.000 OA
BRANCH  20  21
ATOM     21  P   UNL     1     -22.143  70.669  28.128  0.00  0.00    +0.000 P 
ATOM     22  O   UNL     1     -21.139  69.910  27.332  0.00  0.00    +0.000 OA
BRANCH  21  23
ATOM     23  O   UNL     1     -21.444  71.733  29.100  0.00  0.00    +0.000 OA
ATOM     24  H   UNL     1     -21.516  72.627  28.712  0.00  0.00    +0.000 HD
ENDBRANCH  21  23
BRANCH  21  25
ATOM     25  O   UNL     1     -23.206  71.551  27.331  0.00  0.00    +0.000 OA
BRANCH  25  26
ATOM     26  P   UNL     1     -23.140  71.398  25.609  0.00  0.00    +0.000 P 
ATOM     27  O   UNL     1     -23.918  72.713  25.467  0.00  0.00    +0.000 OA
BRANCH  26  28
ATOM     28  O   UNL     1     -21.595  71.943  25.614  0.00  0.00    +0.000 OA
ATOM     29  H   UNL     1     -21.113  71.376  26.254  0.00  0.00    +0.000 HD
ENDBRANCH  26  28
BRANCH  26  30
ATOM     30  O   UNL     1     -23.074  71.244  23.887  0.00  0.00    +0.000 OA
BRANCH  30  31
ATOM     31  P   UNL     1     -22.676  69.614  23.468  0.00  0.00    +0.000 P 
ATOM     32  O   UNL     1     -21.173  69.872  23.479  0.00  0.00    +0.000 OA
BRANCH  31  33
ATOM     33  O   UNL     1     -23.051  69.120  24.970  0.00  0.00    +0.000 OA
ATOM     34  H   UNL     1     -23.923  69.465  25.237  0.00  0.00    +0.000 HD
ENDBRANCH  31  33
BRANCH  31  35
ATOM     35  O   UNL     1     -22.278  67.982  23.050  0.00  0.00    +0.000 OA
ATOM     36  H   UNL     1     -21.363  67.863  23.375  0.00  0.00    +0.000 HD
ENDBRANCH  31  35
ENDBRANCH  30  31
ENDBRANCH  26  30
ENDBRANCH  25  26
ENDBRANCH  21  25
ENDBRANCH  20  21
ENDBRANCH  19  20
ENDBRANCH   4  19
TORSDOF 13
ENDMDL
MODEL 3
REMARK VINA RESULT:    -6.257     11.102     14.056
REMARK INTER + INTRA:         -11.726
REMARK INTER:                 -10.534
REMARK INTRA:                  -1.192
REMARK UNBOUND:                -1.628
REMARK  Name = 
REMARK  14 active torsions:
REMARK  status: ('A' for Active; 'I' for Inactive)
REMARK    1  A    between atoms: C_1  and  C_2
REMARK    2  A    between atoms: C_3  and  O_29
REMARK    3  A    between atoms: C_4  and  C_15
REMARK    4  A    between atoms: C_6  and  N_7
REMARK    5  A    between atoms: C_15  and  O_16
REMARK    6  A    between atoms: O_16  and  P_17
REMARK    7  A    between atoms: P_17  and  O_19
REMARK    8  A    between atoms: P_17  and  O_20
REMARK    9  A    between atoms: O_20  and  P_21
REMARK   10  A    between atoms: P_21  and  O_23
REMARK   11  A    between atoms: P_21  and  O_24
REMARK   12  A    between atoms: O_24  and  P_25
REMARK   13  A    between atoms: P_25  and  O_27
REMARK   14  A    between atoms: P_25  and  O_28
REMARK                            x       y       z     vdW  Elec       q    Type
REMARK                         _______ _______ _______ _____ _____    ______ ____
ROOT
ATOM      1  C   UNL     1     -21.557  69.559  32.597  0.00  0.00    +0.000 C 
ATOM      2  C   UNL     1     -21.850  68.067  32.726  0.00  0.00    +0.000 C 
ATOM      3  C   UNL     1     -22.318  67.463  31.397  0.00  0.00    +0.000 C 
ATOM      4  C   UNL     1     -21.060  66.832  30.790  0.00  0.00    +0.000 C 
ATOM      5  O   UNL     1     -19.998  66.975  31.751  0.00  0.00    +0.000 OA
ATOM      6  C   UNL     1     -20.604  67.222  33.035  0.00  0.00    +0.000 C 
ATOM      7  F   UNL     1     -22.822  67.892  33.657  0.00  0.00    +0.000 F 
ENDROOT
BRANCH   6   8
ATOM      8  N   UNL     1     -19.632  67.788  33.974  0.00  0.00    +0.000 N 
ATOM      9  C   UNL     1     -18.464  68.385  33.533  0.00  0.00    +0.000 A 
ATOM     10  C   UNL     1     -17.522  68.814  34.377  0.00  0.00    +0.000 A 
ATOM     11  C   UNL     1     -17.739  68.655  35.820  0.00  0.00    +0.000 A 
ATOM     12  O   UNL     1     -16.873  68.985  36.631  0.00  0.00    +0.000 OA
ATOM     13  N   UNL     1     -18.936  68.123  36.182  0.00  0.00    +0.000 N 
ATOM     14  C   UNL     1     -19.881  67.609  35.332  0.00  0.00    +0.000 A 
ATOM     15  O   UNL     1     -20.860  67.021  35.781  0.00  0.00    +0.000 OA
ATOM     16  H   UNL     1     -19.094  67.976  37.170  0.00  0.00    +0.000 HD
ENDBRANCH   6   8
BRANCH   3  17
ATOM     17  O   UNL     1     -23.306  66.435  31.559  0.00  0.00    +0.000 OA
ATOM     18  H   UNL     1     -22.916  65.576  31.309  0.00  0.00    +0.000 HD
ENDBRANCH   3  17
BRANCH   4  19
ATOM     19  C   UNL     1     -20.685  67.493  29.467  0.00  0.00    +0.000 C 
BRANCH  19  20
ATOM     20  O   UNL     1     -21.672  68.433  29.052  0.00  0.00    +0.000 OA
BRANCH  20  21
ATOM     21  P   UNL     1     -21.060  69.736  28.334  0.00  0.00    +0.000 P 
ATOM     22  O   UNL     1     -20.023  69.439  27.307  0.00  0.00    +0.000 OA
BRANCH  21  23
ATOM     23  O   UNL     1     -20.466  70.612  29.535  0.00  0.00    +0.000 OA
ATOM     24  H   UNL     1     -19.628  71.029  29.253  0.00  0.00    +0.000 HD
ENDBRANCH  21  23
BRANCH  21  25
ATOM     25  O   UNL     1     -22.339  70.570  27.875  0.00  0.00    +0.000 OA
BRANCH  25  26
ATOM     26  P   UNL     1     -22.881  70.252  26.263  0.00  0.00    +0.000 P 
ATOM     27  O   UNL     1     -23.924  69.271  26.812  0.00  0.00    +0.000 OA
BRANCH  26  28
ATOM     28  O   UNL     1     -23.731  71.653  26.267  0.00  0.00    +0.000 OA
ATOM     29  H   UNL     1     -24.646  71.410  26.524  0.00  0.00    +0.000 HD
ENDBRANCH  26  28
BRANCH  26  30
ATOM     30  O   UNL     1     -23.421  69.935  24.650  0.00  0.00    +0.000 OA
BRANCH  30  31
ATOM     31  P   UNL     1     -22.122  70.208  23.542  0.00  0.00    +0.000 P 
ATOM     32  O   UNL     1     -21.166  70.694  24.627  0.00  0.00    +0.000 OA
BRANCH  31  33
ATOM     33  O   UNL     1     -21.871  68.608  23.417  0.00  0.00    +0.000 OA
ATOM     34  H   UNL     1     -21.446  68.393  22.567  0.00  0.00    +0.000 HD
ENDBRANCH  31  33
BRANCH  31  35
ATOM     35  O   UNL     1     -20.821  70.482  22.434  0.00  0.00    +0.000 OA
ATOM     36  H   UNL     1     -20.198  69.747  22.602  0.00  0.00    +0.000 HD
ENDBRANCH  31  35
ENDBRANCH  30  31
ENDBRANCH  26  30
ENDBRANCH  25  26
ENDBRANCH  21  25
ENDBRANCH  20  21
ENDBRANCH  19  20
ENDBRANCH   4  19
TORSDOF 13
ENDMDL
