MODEL 1
REMARK VINA RESULT:    -8.147      0.000      0.000
REMARK INTER + INTRA:         -14.849
REMARK INTER:                 -13.147
REMARK INTRA:                  -1.701
REMARK UNBOUND:                -1.701
REMARK  Name = 
REMARK  14 active torsions:
REMARK  status: ('A' for Active; 'I' for Inactive)
REMARK    1  A    between atoms: C_1  and  C_2
REMARK    2  A    between atoms: C_3  and  O_29
REMARK    3  A    between atoms: C_4  and  C_15
REMARK    4  A    between atoms: C_6  and  N_7
REMARK    5  A    between atoms: C_15  and  O_16
REMARK    6  A    between atoms: O_16  and  P_17
REMARK    7  A    between atoms: P_17  and  O_19
REMARK    8  A    between atoms: P_17  and  O_20
REMARK    9  A    between atoms: O_20  and  P_21
REMARK   10  A    between atoms: P_21  and  O_23
REMARK   11  A    between atoms: P_21  and  O_24
REMARK   12  A    between atoms: O_24  and  P_25
REMARK   13  A    between atoms: P_25  and  O_27
REMARK   14  A    between atoms: P_25  and  O_28
REMARK                            x       y       z     vdW  Elec       q    Type
REMARK                         _______ _______ _______ _____ _____    ______ ____
ROOT
ATOM      1  C   UNL     1      -5.108  -3.468  11.055  0.00  0.00    +0.000 C 
ATOM      2  C   UNL     1      -4.627  -3.815  12.460  0.00  0.00    +0.000 C 
ATOM      3  C   UNL     1      -3.227  -3.255  12.738  0.00  0.00    +0.000 C 
ATOM      4  C   UNL     1      -3.473  -1.946  13.497  0.00  0.00    +0.000 C 
ATOM      5  O   UNL     1      -4.890  -1.838  13.724  0.00  0.00    +0.000 OA
ATOM      6  C   UNL     1      -5.456  -3.155  13.574  0.00  0.00    +0.000 C 
ATOM      7  F   UNL     1      -4.595  -5.165  12.589  0.00  0.00    +0.000 F 
ENDROOT
BRANCH   6   8
ATOM      8  N   UNL     1      -6.906  -3.083  13.370  0.00  0.00    +0.000 N 
ATOM      9  C   UNL     1      -7.509  -1.946  12.861  0.00  0.00    +0.000 A 
ATOM     10  C   UNL     1      -8.835  -1.827  12.765  0.00  0.00    +0.000 A 
ATOM     11  C   UNL     1      -9.680  -2.945  13.204  0.00  0.00    +0.000 A 
ATOM     12  O   UNL     1     -10.908  -2.856  13.185  0.00  0.00    +0.000 OA
ATOM     13  N   UNL     1      -9.018  -4.054  13.628  0.00  0.00    +0.000 N 
ATOM     14  C   UNL     1      -7.663  -4.167  13.805  0.00  0.00    +0.000 A 
ATOM     15  O   UNL     1      -7.192  -5.169  14.333  0.00  0.00    +0.000 OA
ATOM     16  H   UNL     1      -9.581  -4.825  13.964  0.00  0.00    +0.000 HD
ENDBRANCH   6   8
BRANCH   3  17
ATOM     17  O   UNL     1      -2.427  -4.112  13.563  0.00  0.00    +0.000 OA
ATOM     18  H   UNL     1      -2.041  -4.817  13.010  0.00  0.00    +0.000 HD
ENDBRANCH   3  17
BRANCH   4  19
ATOM     19  C   UNL     1      -2.957  -0.741  12.717  0.00  0.00    +0.000 C 
BRANCH  19  20
ATOM     20  O   UNL     1      -1.641  -0.375  13.127  0.00  0.00    +0.000 OA
BRANCH  20  21
ATOM     21  P   UNL     1      -1.582   1.011  13.942  0.00  0.00    +0.000 P 
ATOM     22  O   UNL     1      -2.630   1.995  13.553  0.00  0.00    +0.000 OA
BRANCH  21  23
ATOM     23  O   UNL     1      -0.110   1.575  13.664  0.00  0.00    +0.000 OA
ATOM     24  H   UNL     1       0.552   0.903  13.922  0.00  0.00    +0.000 HD
ENDBRANCH  21  23
BRANCH  21  25
ATOM     25  O   UNL     1      -1.516   0.564  15.471  0.00  0.00    +0.000 OA
BRANCH  25  26
ATOM     26  P   UNL     1      -2.635   1.368  16.518  0.00  0.00    +0.000 P 
ATOM     27  O   UNL     1      -1.849   0.863  17.736  0.00  0.00    +0.000 OA
BRANCH  26  28
ATOM     28  O   UNL     1      -1.887   2.797  16.229  0.00  0.00    +0.000 OA
ATOM     29  H   UNL     1      -0.934   2.584  16.127  0.00  0.00    +0.000 HD
ENDBRANCH  26  28
BRANCH  26  30
ATOM     30  O   UNL     1      -3.754   2.172  17.564  0.00  0.00    +0.000 OA
BRANCH  30  31
ATOM     31  P   UNL     1      -3.367   3.856  17.639  0.00  0.00    +0.000 P 
ATOM     32  O   UNL     1      -4.747   4.253  18.152  0.00  0.00    +0.000 OA
BRANCH  31  33
ATOM     33  O   UNL     1      -2.459   3.604  18.963  0.00  0.00    +0.000 OA
ATOM     34  H   UNL     1      -2.952   3.846  19.768  0.00  0.00    +0.000 HD
ENDBRANCH  31  33
BRANCH  31  35
ATOM     35  O   UNL     1      -2.980   5.541  17.714  0.00  0.00    +0.000 OA
ATOM     36  H   UNL     1      -2.449   5.634  18.531  0.00  0.00    +0.000 HD
ENDBRANCH  31  35
ENDBRANCH  30  31
ENDBRANCH  26  30
ENDBRANCH  25  26
ENDBRANCH  21  25
ENDBRANCH  20  21
ENDBRANCH  19  20
ENDBRANCH   4  19
TORSDOF 13
ENDMDL
MODEL 2
REMARK VINA RESULT:    -7.787      6.245      8.492
REMARK INTER + INTRA:         -14.267
REMARK INTER:                 -13.279
REMARK INTRA:                  -0.989
REMARK UNBOUND:                -1.701
REMARK  Name = 
REMARK  14 active torsions:
REMARK  status: ('A' for Active; 'I' for Inactive)
REMARK    1  A    between atoms: C_1  and  C_2
REMARK    2  A    between atoms: C_3  and  O_29
REMARK    3  A    between atoms: C_4  and  C_15
REMARK    4  A    between atoms: C_6  and  N_7
REMARK    5  A    between atoms: C_15  and  O_16
REMARK    6  A    between atoms: O_16  and  P_17
REMARK    7  A    between atoms: P_17  and  O_19
REMARK    8  A    between atoms: P_17  and  O_20
REMARK    9  A    between atoms: O_20  and  P_21
REMARK   10  A    between atoms: P_21  and  O_23
REMARK   11  A    between atoms: P_21  and  O_24
REMARK   12  A    between atoms: O_24  and  P_25
REMARK   13  A    between atoms: P_25  and  O_27
REMARK   14  A    between atoms: P_25  and  O_28
REMARK                            x       y       z     vdW  Elec       q    Type
REMARK                         _______ _______ _______ _____ _____    ______ ____
ROOT
ATOM      1  C   UNL     1      -4.510   6.125  16.611  0.00  0.00    +0.000 C 
ATOM      2  C   UNL     1      -5.235   4.791  16.456  0.00  0.00    +0.000 C 
ATOM      3  C   UNL     1      -4.290   3.682  15.982  0.00  0.00    +0.000 C 
ATOM      4  C   UNL     1      -3.884   2.941  17.261  0.00  0.00    +0.000 C 
ATOM      5  O   UNL     1      -4.628   3.519  18.350  0.00  0.00    +0.000 OA
ATOM      6  C   UNL     1      -5.754   4.217  17.784  0.00  0.00    +0.000 C 
ATOM      7  F   UNL     1      -6.231   4.940  15.547  0.00  0.00    +0.000 F 
ENDROOT
BRANCH   6   8
ATOM      8  N   UNL     1      -6.319   5.168  18.745  0.00  0.00    +0.000 N 
ATOM      9  C   UNL     1      -6.044   6.523  18.668  0.00  0.00    +0.000 A 
ATOM     10  C   UNL     1      -6.466   7.387  19.594  0.00  0.00    +0.000 A 
ATOM     11  C   UNL     1      -7.258   6.885  20.723  0.00  0.00    +0.000 A 
ATOM     12  O   UNL     1      -7.620   7.638  21.627  0.00  0.00    +0.000 OA
ATOM     13  N   UNL     1      -7.547   5.557  20.697  0.00  0.00    +0.000 N 
ATOM     14  C   UNL     1      -7.060   4.643  19.800  0.00  0.00    +0.000 A 
ATOM     15  O   UNL     1      -7.273   3.445  19.962  0.00  0.00    +0.000 OA
ATOM     16  H   UNL     1      -8.066   5.184  21.482  0.00  0.00    +0.000 HD
ENDBRANCH   6   8
BRANCH   3  17
ATOM     17  O   UNL     1      -4.916   2.743  15.097  0.00  0.00    +0.000 OA
ATOM     18  H   UNL     1      -4.599   2.902  14.188  0.00  0.00    +0.000 HD
ENDBRANCH   3  17
BRANCH   4  19
ATOM     19  C   UNL     1      -2.383   3.045  17.516  0.00  0.00    +0.000 C 
BRANCH  19  20
ATOM     20  O   UNL     1      -1.638   2.963  16.305  0.00  0.00    +0.000 OA
BRANCH  20  21
ATOM     21  P   UNL     1      -1.172   1.469  15.934  0.00  0.00    +0.000 P 
ATOM     22  O   UNL     1      -0.520   0.735  17.054  0.00  0.00    +0.000 OA
BRANCH  21  23
ATOM     23  O   UNL     1      -0.176   1.657  14.694  0.00  0.00    +0.000 OA
ATOM     24  H   UNL     1       0.035   2.605  14.586  0.00  0.00    +0.000 HD
ENDBRANCH  21  23
BRANCH  21  25
ATOM     25  O   UNL     1      -2.461   0.809  15.267  0.00  0.00    +0.000 OA
BRANCH  25  26
ATOM     26  P   UNL     1      -2.378   0.614  13.550  0.00  0.00    +0.000 P 
ATOM     27  O   UNL     1      -3.851   0.184  13.533  0.00  0.00    +0.000 OA
BRANCH  26  28
ATOM     28  O   UNL     1      -2.518   2.234  13.353  0.00  0.00    +0.000 OA
ATOM     29  H   UNL     1      -1.806   2.633  13.898  0.00  0.00    +0.000 HD
ENDBRANCH  26  28
BRANCH  26  30
ATOM     30  O   UNL     1      -2.294   0.418  11.833  0.00  0.00    +0.000 OA
BRANCH  30  31
ATOM     31  P   UNL     1      -1.221  -0.885  11.452  0.00  0.00    +0.000 P 
ATOM     32  O   UNL     1      -0.834  -0.302  10.097  0.00  0.00    +0.000 OA
BRANCH  31  33
ATOM     33  O   UNL     1      -0.126  -0.312  12.508  0.00  0.00    +0.000 OA
ATOM     34  H   UNL     1      -0.444   0.513  12.918  0.00  0.00    +0.000 HD
ENDBRANCH  31  33
BRANCH  31  35
ATOM     35  O   UNL     1      -0.148  -2.187  11.071  0.00  0.00    +0.000 OA
ATOM     36  H   UNL     1      -0.727  -2.879  10.692  0.00  0.00    +0.000 HD
ENDBRANCH  31  35
ENDBRANCH  30  31
ENDBRANCH  26  30
ENDBRANCH  25  26
ENDBRANCH  21  25
ENDBRANCH  20  21
ENDBRANCH  19  20
ENDBRANCH   4  19
TORSDOF 13
ENDMDL
MODEL 3
REMARK VINA RESULT:    -7.531      2.546      3.825
REMARK INTER + INTRA:         -13.855
REMARK INTER:                 -11.963
REMARK INTRA:                  -1.892
REMARK UNBOUND:                -1.701
REMARK  Name = 
REMARK  14 active torsions:
REMARK  status: ('A' for Active; 'I' for Inactive)
REMARK    1  A    between atoms: C_1  and  C_2
REMARK    2  A    between atoms: C_3  and  O_29
REMARK    3  A    between atoms: C_4  and  C_15
REMARK    4  A    between atoms: C_6  and  N_7
REMARK    5  A    between atoms: C_15  and  O_16
REMARK    6  A    between atoms: O_16  and  P_17
REMARK    7  A    between atoms: P_17  and  O_19
REMARK    8  A    between atoms: P_17  and  O_20
REMARK    9  A    between atoms: O_20  and  P_21
REMARK   10  A    between atoms: P_21  and  O_23
REMARK   11  A    between atoms: P_21  and  O_24
REMARK   12  A    between atoms: O_24  and  P_25
REMARK   13  A    between atoms: P_25  and  O_27
REMARK   14  A    between atoms: P_25  and  O_28
REMARK                            x       y       z     vdW  Elec       q    Type
REMARK                         _______ _______ _______ _____ _____    ______ ____
ROOT
ATOM      1  C   UNL     1      -7.031  -3.118  11.236  0.00  0.00    +0.000 C 
ATOM      2  C   UNL     1      -6.721  -2.630  12.648  0.00  0.00    +0.000 C 
ATOM      3  C   UNL     1      -5.289  -2.979  13.069  0.00  0.00    +0.000 C 
ATOM      4  C   UNL     1      -4.481  -1.704  12.802  0.00  0.00    +0.000 C 
ATOM      5  O   UNL     1      -5.406  -0.689  12.371  0.00  0.00    +0.000 OA
ATOM      6  C   UNL     1      -6.725  -1.099  12.784  0.00  0.00    +0.000 C 
ATOM      7  F   UNL     1      -7.589  -3.215  13.512  0.00  0.00    +0.000 F 
ENDROOT
BRANCH   6   8
ATOM      8  N   UNL     1      -7.757  -0.368  12.044  0.00  0.00    +0.000 N 
ATOM      9  C   UNL     1      -7.577  -0.004  10.720  0.00  0.00    +0.000 A 
ATOM     10  C   UNL     1      -8.463   0.749  10.064  0.00  0.00    +0.000 A 
ATOM     11  C   UNL     1      -9.673   1.196  10.767  0.00  0.00    +0.000 A 
ATOM     12  O   UNL     1     -10.487   1.937  10.217  0.00  0.00    +0.000 OA
ATOM     13  N   UNL     1      -9.815   0.744  12.040  0.00  0.00    +0.000 N 
ATOM     14  C   UNL     1      -8.884   0.036  12.755  0.00  0.00    +0.000 A 
ATOM     15  O   UNL     1      -9.063  -0.191  13.947  0.00  0.00    +0.000 OA
ATOM     16  H   UNL     1     -10.626   1.065  12.554  0.00  0.00    +0.000 HD
ENDBRANCH   6   8
BRANCH   3  17
ATOM     17  O   UNL     1      -5.171  -3.305  14.461  0.00  0.00    +0.000 OA
ATOM     18  H   UNL     1      -5.893  -2.870  14.953  0.00  0.00    +0.000 HD
ENDBRANCH   3  17
BRANCH   4  19
ATOM     19  C   UNL     1      -3.402  -1.935  11.749  0.00  0.00    +0.000 C 
BRANCH  19  20
ATOM     20  O   UNL     1      -2.096  -1.734  12.282  0.00  0.00    +0.000 OA
BRANCH  20  21
ATOM     21  P   UNL     1      -1.122  -0.906  11.305  0.00  0.00    +0.000 P 
ATOM     22  O   UNL     1      -1.064  -1.429   9.912  0.00  0.00    +0.000 OA
BRANCH  21  23
ATOM     23  O   UNL     1       0.309  -0.971  12.020  0.00  0.00    +0.000 OA
ATOM     24  H   UNL     1       0.195  -1.223  12.957  0.00  0.00    +0.000 HD
ENDBRANCH  21  23
BRANCH  21  25
ATOM     25  O   UNL     1      -1.560   0.613  11.509  0.00  0.00    +0.000 OA
BRANCH  25  26
ATOM     26  P   UNL     1      -1.258   1.257  13.086  0.00  0.00    +0.000 P 
ATOM     27  O   UNL     1      -0.062   2.042  12.531  0.00  0.00    +0.000 OA
BRANCH  26  28
ATOM     28  O   UNL     1      -2.470   2.341  12.882  0.00  0.00    +0.000 OA
ATOM     29  H   UNL     1      -3.189   1.855  12.423  0.00  0.00    +0.000 HD
ENDBRANCH  26  28
BRANCH  26  30
ATOM     30  O   UNL     1      -0.957   1.900  14.664  0.00  0.00    +0.000 OA
BRANCH  30  31
ATOM     31  P   UNL     1      -1.959   1.091  15.818  0.00  0.00    +0.000 P 
ATOM     32  O   UNL     1      -3.128   2.053  15.626  0.00  0.00    +0.000 OA
BRANCH  31  33
ATOM     33  O   UNL     1      -2.212  -0.125  14.769  0.00  0.00    +0.000 OA
ATOM     34  H   UNL     1      -2.560  -0.910  15.232  0.00  0.00    +0.000 HD
ENDBRANCH  31  33
BRANCH  31  35
ATOM     35  O   UNL     1      -2.964   0.282  16.972  0.00  0.00    +0.000 OA
ATOM     36  H   UNL     1      -3.634  -0.181  16.431  0.00  0.00    +0.000 HD
ENDBRANCH  31  35
ENDBRANCH  30  31
ENDBRANCH  26  30
ENDBRANCH  25  26
ENDBRANCH  21  25
ENDBRANCH  20  21
ENDBRANCH  19  20
ENDBRANCH   4  19
TORSDOF 13
ENDMDL
