REMARK  Name = 
REMARK  14 active torsions:
REMARK  status: ('A' for Active; 'I' for Inactive)
REMARK    1  A    between atoms: C_1  and  C_2
REMARK    2  A    between atoms: C_3  and  O_29
REMARK    3  A    between atoms: C_4  and  C_15
REMARK    4  A    between atoms: C_6  and  N_7
REMARK    5  A    between atoms: C_15  and  O_16
REMARK    6  A    between atoms: O_16  and  P_17
REMARK    7  A    between atoms: P_17  and  O_19
REMARK    8  A    between atoms: P_17  and  O_20
REMARK    9  A    between atoms: O_20  and  P_21
REMARK   10  A    between atoms: P_21  and  O_23
REMARK   11  A    between atoms: P_21  and  O_24
REMARK   12  A    between atoms: O_24  and  P_25
REMARK   13  A    between atoms: P_25  and  O_27
REMARK   14  A    between atoms: P_25  and  O_28
REMARK                            x       y       z     vdW  Elec       q    Type
REMARK                         _______ _______ _______ _____ _____    ______ ____
ROOT
ATOM      1  C   UNL     1       4.337  -4.110  -0.206  0.00  0.00    +0.000 C 
ATOM      2  C   UNL     1       5.289  -4.167   0.985  0.00  0.00    +0.000 C 
ATOM      3  C   UNL     1       4.787  -3.315   2.156  0.00  0.00    +0.000 C 
ATOM      4  C   UNL     1       4.082  -4.307   3.088  0.00  0.00    +0.000 C 
ATOM      5  O   UNL     1       4.270  -5.624   2.538  0.00  0.00    +0.000 OA
ATOM      6  C   UNL     1       5.385  -5.560   1.628  0.00  0.00    +0.000 C 
ATOM      7  F   UNL     1       6.504  -3.707   0.594  0.00  0.00    +0.000 F 
ENDROOT
BRANCH   6   8
ATOM      8  N   UNL     1       5.390  -6.712   0.722  0.00  0.00    +0.000 N 
ATOM      9  C   UNL     1       4.361  -7.638   0.724  0.00  0.00    +0.000 A 
ATOM     10  C   UNL     1       4.400  -8.745  -0.021  0.00  0.00    +0.000 A 
ATOM     11  C   UNL     1       5.568  -8.981  -0.879  0.00  0.00    +0.000 A 
ATOM     12  O   UNL     1       5.670 -10.015  -1.539  0.00  0.00    +0.000 OA
ATOM     13  N   UNL     1       6.506  -7.998  -0.882  0.00  0.00    +0.000 N 
ATOM     14  C   UNL     1       6.521  -6.894  -0.069  0.00  0.00    +0.000 A 
ATOM     15  O   UNL     1       7.496  -6.149  -0.058  0.00  0.00    +0.000 OA
ATOM     16  H   UNL     1       7.334  -8.154  -1.442  0.00  0.00    +0.000 HD
ENDBRANCH   6   8
BRANCH   3  17
ATOM     17  O   UNL     1       5.844  -2.680   2.889  0.00  0.00    +0.000 OA
ATOM     18  H   UNL     1       6.643  -3.238   2.844  0.00  0.00    +0.000 HD
ENDBRANCH   3  17
BRANCH   4  19
ATOM     19  C   UNL     1       2.597  -3.986   3.227  0.00  0.00    +0.000 C 
BRANCH  19  20
ATOM     20  O   UNL     1       1.952  -4.870   4.140  0.00  0.00    +0.000 OA
BRANCH  20  21
ATOM     21  P   UNL     1       0.351  -4.713   4.167  0.00  0.00    +0.000 P 
ATOM     22  O   UNL     1      -0.124  -3.339   4.490  0.00  0.00    +0.000 OA
BRANCH  21  23
ATOM     23  O   UNL     1      -0.136  -5.778   5.259  0.00  0.00    +0.000 OA
ATOM     24  H   UNL     1      -0.268  -5.329   6.117  0.00  0.00    +0.000 HD
ENDBRANCH  21  23
BRANCH  21  25
ATOM     25  O   UNL     1      -0.130  -5.359   2.791  0.00  0.00    +0.000 OA
BRANCH  25  26
ATOM     26  P   UNL     1      -1.842  -5.357   2.540  0.00  0.00    +0.000 P 
ATOM     27  O   UNL     1      -1.713  -4.076   1.706  0.00  0.00    +0.000 OA
BRANCH  26  28
ATOM     28  O   UNL     1      -1.679  -6.506   1.383  0.00  0.00    +0.000 OA
ATOM     29  H   UNL     1      -1.563  -6.020   0.538  0.00  0.00    +0.000 HD
ENDBRANCH  26  28
BRANCH  26  30
ATOM     30  O   UNL     1      -3.554  -5.356   2.290  0.00  0.00    +0.000 OA
BRANCH  30  31
ATOM     31  P   UNL     1      -4.359  -5.174   3.810  0.00  0.00    +0.000 P 
ATOM     32  O   UNL     1      -3.310  -4.215   4.364  0.00  0.00    +0.000 OA
BRANCH  31  33
ATOM     33  O   UNL     1      -5.491  -4.237   3.116  0.00  0.00    +0.000 OA
ATOM     34  H   UNL     1      -5.173  -3.319   3.034  0.00  0.00    +0.000 HD
ENDBRANCH  31  33
BRANCH  31  35
ATOM     35  O   UNL     1      -5.164  -4.991   5.331  0.00  0.00    +0.000 OA
ATOM     36  H   UNL     1      -4.790  -4.170   5.709  0.00  0.00    +0.000 HD
ENDBRANCH  31  35
ENDBRANCH  30  31
ENDBRANCH  26  30
ENDBRANCH  25  26
ENDBRANCH  21  25
ENDBRANCH  20  21
ENDBRANCH  19  20
ENDBRANCH   4  19
TORSDOF 13
